{
    "water": {
        "formula": "H2O",
        "meltingPoint": "0",
        "boilingPoint": "1000"
    },
    "hydroxide": {
        "formula": "OH",
        "meltingPoint": "0",
        "boilingPoint": "1000"
    }
}